% Model:              11dec.mph
% Version:            COMSOL 6.2.0.290
% Date:               Dec 12 2024, 10:11
% Dimension:          3
% Nodes:              32582
% Expressions:        1
% Description:        Slice
% x                       y                        z                        Velocity magnitude
-4.2351647362715017E-22   0.34414464695772584      0.00999762330338156      0.0011960366978719206
4.2351647362715017E-22    0.34414926315711464      0.010000000000000002     0.00119575594291152
8.470329472543003E-22     0.34414925724478906      0.009998786116555587     0.0011961379155246191
-4.2351647362715017E-22   0.3441417732593373       0.010000000000000002     0.0011969101248478424
0                         0.3365396966616385       0.007817985616926947     0.0019681993309947974
4.3368086899420177E-19    0.3355317764228981       0.010000000000000002     0.0022446558703886725
0                         0.3370447300246806       0.00574804333450031      0.0015144084314854696
0                         0.32745907403967844      0.006622417087565658     0.003880694494478648
0                         0.3280891078867454       0.010000000000000002     0.0027582996360047004
0                         0.32521320288237204      0.005644407513299673     0.004147045135886111
0                         0.3248255539130607       0.006122723699482974     0.00428404414940076
0                         0.32467114178205625      0.010000000000000002     0.0030775820664239294
2.1684043449710089E-19    0.31359566587215737      0.010000000000000002     0.0017445197440158777
7.27601301691444E-19      -0.34410166030522804     0.009997733891400507     0.0019104520813222642
5.200782296141404E-19     -0.34410575629085494     0.009998677134708454     0.0019103106120806322
9.232659125071874E-20     -0.34410575583000697     0.010000000000000002     0.0019098604129313837
4.2266944067989587E-19    -0.34409762161298224     0.010000000000000002     0.0019110399960417933
-4.3368086899420177E-19   -0.3332774810639611      0.010000000000000002     0.002943256729188873
4.3368086899420177E-19    -0.3327970945136657      0.007374049709724169     0.0024933704405050413
-4.3368086899420177E-19   -0.3337468012075178      0.005757094863634728     0.0022266409319546335
6.505213034913027E-19     -0.3262250346769298      0.010000000000000002     0.003361532617525261
-2.1684043449710089E-19   0.3236996660135365       0.005636520506922146     0.004241715433048459
2.1684043449710089E-19    0.3117399611829146       0.009158348103090653     0.0016845269905660467
4.3368086899420177E-19    0.3111747141303808       0.010000000000000002     0.0024546081339088858
-2.1684043449710089E-19   0.30665333912582776      0.00766399850290036      0.002829157098390595
0                         0.3061775284489984       0.010000000000000002     0.0033701654276865143
-8.673617379884035E-19    0.2987395651172834       0.008495627152126527     0.006445664176568704
4.3368086899420177E-19    0.3017026154822452       0.005547006635895845     0.004718298552857833
-8.673617379884035E-19    0.29757753112845753      0.010000000000000002     0.006049117930081279
-8.673617379884035E-19    -0.330114508489056       0.005722904423460748     0.002648362386456717
-8.673617379884035E-19    -0.32335073414313475     0.009143350870999278     0.003594413081218085
-4.3368086899420177E-19   -0.32074940837649857     0.006963258775249446     0.00488804829137922
-6.505213034913027E-19    -0.32257160909855487     0.010000000000000002     0.003857144936961416
8.673617379884035E-19     -0.3219372624680711      0.005650760915334065     0.004488020239441192
0                         -0.31248452539286803     0.010000000000000002     0.005312269361608716
1.0842021724855044E-19    -0.3101903942994903      0.006857076329606837     0.006849901775142814
0                         -0.3128054776137894      0.005605008748059        0.006819414040476306
2.1684043449710089E-19    0.28957192191714254      0.0058093193540525315    0.007267836602162199
2.1684043449710089E-19    0.2914222509143154       0.006661018556728737     0.006667609595643736
0                         0.2898582104976449       0.005534811921300588     0.006508971644064552
-1.0842021724855044E-19   0.28590574113347744      0.007605204105427777     0.007638593805357125
-1.3010426069826053E-18   0.28390147976054975      0.010000000000000002     0.008208540879428747
2.1684043449710089E-19    0.2821688336144729       0.010000000000000002     0.0086846194901707
4.3368086899420177E-19    -0.30915607461995354     0.010000000000000002     0.007230041421062614
-4.3368086899420177E-19   -0.29605113162692714     0.008688878577854574     0.013042520023420623
0                         -0.3033823749681361      0.010000000000000002     0.009855346534320061
0                         -0.3083796803196021      0.005590258525775328     0.007627197804408859
0                         -0.29594048102245213     0.010000000000000002     0.013164567323728716
0                         0.2880703211224685       0.005532868410290105     0.008069339928414897
-1.0842021724855044E-18   0.28078653806804527      0.009428172900977482     0.009705055068815102
-8.673617379884035E-19    0.2808140358826529       0.010000000000000002     0.008516859603443831
-4.3368086899420177E-19   0.2641133133903718       0.008287304588385988     0.012633118640861135
0                         0.26146450488336903      0.010000000000000002     0.009165937787606934
0                         0.274770625666126        0.00552639355581339      0.018191486198838758
5.421010862427522E-20     -0.2799069079530944      0.009780676187688969     0.01498297873161269
-5.421010862427522E-20    -0.2791604467441868      0.010000000000000002     0.015201045835206211
5.421010862427522E-20     -0.27898255398701494     0.009854252001502136     0.01523756750000543
0                         -0.2797391461243594      0.010000000000000002     0.015020492165211615
4.3368086899420177E-19    -0.28815626952808665     0.005543884384550529     0.012018306372623893
0                         -0.2788216168808724      0.010000000000000002     0.015091316674099057
2.168404344971009E-18     0.2579525690674205       0.0065249121046283345    0.010287998723773815
-4.3368086899420177E-19   0.26054537997083693      0.00551715486652049      0.01301627343154305
0                         0.23714168100372013      0.010000000000000002     0.027747356095378914
-1.734723475976807E-18    0.2546312236249665       0.010000000000000002     0.014561208226719127
-8.673617379884035E-19    0.25254357472791955      0.006633719800757476     0.014610400641027598
-4.3368086899420177E-19   0.2546059765692196       0.005514756189167642     0.012071628843941348
0                         -0.2646466824051447      0.006449426625072627     0.016557730178260077
4.3368086899420177E-19    -0.266714643350256       0.005519670925836579     0.017611331801573184
0                         -0.27457191814329596     0.010000000000000002     0.014710300022849489
6.505213034913027E-19     -0.25699142074920694     0.008605181991357385     0.014209408881947492
2.168404344971009E-18     -0.25556334391655716     0.010000000000000002     0.011903093964098131
8.673617379884035E-19     -0.26110616807691556     0.005515919594509859     0.017390193142721163
4.3368086899420177E-19    -0.23565360371993427     0.006271724755562049     0.008697390878312571
0                         -0.23993169139261664     0.005508172943256659     0.00607182036035682
-4.3368086899420177E-19   -0.2483495092013019      0.008501168552672075     0.009622077053417756
1.734723475976807E-18     0.23085605144149313      0.0077585440927101165    0.02837252253588781
4.3368086899420177E-19    0.24810818049481506      0.005513053974302658     0.01565546519318466
0                         0.21407927228662899      0.005946276267546331     0.04338361060624718
2.1684043449710089E-19    0.2120442050265271       0.005503498400923389     0.04480238198849643
0                         0.2117130735602247       0.005840049582351567     0.04513723603954466
-8.673617379884035E-19    0.22572001288950674      0.010000000000000002     0.02927102363997793
-8.673617379884035E-19    0.21310477596278737      0.010000000000000002     0.037740579529317586
-2.1684043449710089E-19   -0.2541538537743722      0.009687154099872839     0.012023575337984638
1.0842021724855044E-18    -0.253891328866337       0.010000000000000002     0.01184365162853235
-8.673617379884035E-19    -0.22882931654515404     0.010000000000000002     0.02884249155642758
0                         -0.24994492222130354     0.010000000000000002     0.01484438709951326
0                         -0.22744146833895196     0.008552812946461982     0.025776561494587926
0                         -0.23512021878734463     0.005506679359576734     0.00684074688238198
0                         -0.21788174508828254     0.010000000000000002     0.041791695311273754
-2.1684043449710089E-19   -0.20828401193946713     0.00618233719892005      0.03846218652986034
-1.734723475976807E-18    0.1979531850372585       0.010000000000000002     0.0507045389784164
0                         0.1868179099892524       0.0060961642272201       0.047644707510477745
0                         0.1815704562926132       0.010000000000000002     0.07961289090861501
1.0842021724855044E-19    0.20442743802527033      0.005502785343269829     0.0454421166287792
-1.951563910473908E-18    -0.20411218806817616     0.005898027455483239     0.04297584849029235
8.673617379884035E-19     -0.20338493808531727     0.010000000000000002     0.06175902670789653
8.673617379884035E-19     -0.1877920006086738      0.010000000000000002     0.08508584326602402
-2.1684043449710089E-19   -0.20601833680687862     0.005502109316757637     0.038420854069475804
0                         -0.14558768527906646     0.010000000000000002     0.22874566535234456
-8.673617379884035E-19    -0.13659255273027437     0.010000000000000002     0.2559462069260609
0                         -0.13853744050557487     0.008467948674739        0.22768962188860026
-8.673617379884035E-19    -0.14669328253163538     0.008555198160572602     0.18551169535702114
0                         -0.17198266866061138     0.008958899929891705     0.11108999331303608
0                         -0.16724771202419264     0.01                     0.1451375796984954
0                         -0.16618772967371234     0.00882072548583068      0.11742406442151579
0                         -0.1753574338905722      0.010000000000000002     0.11777431522297105
0                         -0.1777852602125982      0.0069942213214491174    0.0544937775602269
0                         -0.19582033869771417     0.005501406564985523     0.03902312862963028
8.673617379884035E-19     -0.17563471357291643     0.0055001756478604644    0.035171794454520594
0                         -0.14740240449136452     0.005499798317032926     0.11183547192123325
-1.734723475976807E-18    0.16130133532676427      0.010000000000000002     0.15938431138031844
-3.6591823321385775E-19   0.15298896516888502      0.005530198309259623     0.03257246221855182
8.673617379884035E-19     0.14896844053815667      0.010000000000000002     0.21950074262422797
4.3368086899420177E-19    0.17978811548344903      0.0064090933657755325    0.07621836235864092
-4.3368086899420177E-19   0.184833738640038        0.005500970474905956     0.04802026959835427
3.9302328752599536E-19    0.15273732047224778      0.00552962174029651      0.03334719598654328
0                         0.119359317695891        0.00852175045711864      0.31555908424519663
-8.673617379884035E-19    0.12349269659292242      0.010000000000000002     0.30020715785832996
-4.3368086899420177E-19   0.08690878838653901      0.010000000000000002     0.31526358441497615
0                         0.11177267311337302      0.010000000000000002     0.3257360431305786
0                         0.10754332947074519      0.008213416491901554     0.5864012387125829
8.673617379884035E-19     0.08048772176269757      0.009278608879246999     0.46975419727071427
-2.6020852139652106E-18   0.08590530164185253      0.0054998811758070415    1.1598494176259873
-1.734723475976807E-18    0.08134154824700039      0.010000000000000002     0.3137621721453091
0                         0.07902306838649102      0.010000000000000002     0.3123076421121492
0                         0.06208561534599796      0.006755749934488413     1.2805759026063404
-1.734723475976807E-18    0.06796451361382899      0.005499956721034734     1.5178338888425413
-8.673617379884035E-19    0.04863978824690125      0.010000000000000002     0.5127563184145272
0                         -0.11639526730016159     0.0054998275351723965    0.39157564513489673
-4.3368086899420177E-19   -0.11433617181030854     0.006053550256508184     0.4132315785575088
-1.734723475976807E-18    -0.11666000444482291     0.010000000000000002     0.3058935093606022
0                         0.02179084540141526      0.010000000000000002     0.9085924545559031
-2.1684043449710089E-19   0.030204874811734738     0.006353797482530695     1.3847583148271405
-4.3368086899420177E-19   0.00988639281664871      0.008954899195064129     1.0364433757226186
4.3368086899420177E-19    -0.0035773753023592295   0.007681549784728015     0.9520116484652158
0                         0.0029813629569703844    0.010000000000000002     1.076566274734711
8.673617379884035E-19     0.009521020178553212     0.010000000000000002     1.0735601386307885
0                         -0.09434956265100852     0.010000000000000002     0.3770852536297764
-2.1684043449710089E-19   -0.08444215604820393     0.005855417808262599     1.432572157551502
-1.0842021724855044E-19   -0.09065911764987583     0.00549985056014082      1.2234193048318511
0                         -0.10503527231185962     0.006725185536182149     0.42590479933666936
-4.3368086899420177E-19   -0.11294501962366596     0.005499830960926292     0.42001433799314214
1.0842021724855044E-19    -0.06693821359018565     0.007485645699613873     1.0426602045970998
0                         -0.04831611142319283     0.010000000000000004     0.4215329671172867
0                         -0.04690905101209078     0.0077033530922080255    1.0760541566129065
0                         -0.05332636720538178     0.010000000000000004     0.42549196741465056
-2.1684043449710089E-19   -0.0394094376853588      0.008802075546991011     0.5322089595373101
0                         -0.04561488353612139     0.010000000000000002     0.4784874044354471
0                         -0.08233518108860831     0.005683398691004844     1.4827826733997966
0                         -0.08486673404825384     0.010000000000000002     0.41289099238019367
-7.318364664277155E-19    0.15287926556232287      0.005500036556816386     0.03277078905367302
-1.734723475976807E-18    0.044515824817006985     0.009068015018882745     0.823445610334052
0                         0.05873985291656308      0.005499970769046105     1.674259048750383
-1.951563910473908E-18    0.03512691665636279      0.005618478020386075     1.425695363000232
8.673617379884035E-19     0.042094701502246416     0.010000000000000002     0.5617809674794829
9.75781955236954E-19      0.03558545820748473      0.005499982151114894     1.4619723254132837
-1.0842021724855044E-19   0.03412470736955549      0.005499982169085827     1.4394092487627077
8.673617379884035E-19     -0.08238738503158055     0.005499853186873768     1.4993509349648362
0                         -0.017039287178215255    0.006192335440263187     0.8684597729496627
3.469446951953614E-18     -0.01707272762862597     0.005499952522434143     0.9146877885223269
-1.734723475976807E-18    -0.02185071757000557     0.010000000000000002     1.067044582680605
-1.734723475976807E-18    -0.012050864272773359    0.005499954743017471     0.8594168452879687
-4.553649124439119E-18    -0.08126867006112724     0.005644931223799179     1.494531216568109
0                         -0.08113979718784374     0.005499853414616023     1.5397808638418593
4.336808689942018E-18     -0.07877982793876588     0.010000000000000002     0.4258011148648526
4.2351647362715017E-22    0.3440052314489576       0.005754170158299223     7.537938965166955E-4
0                         0.3440095393204051       0.0057541651668685774    7.537745614931034E-4
-4.3368086899420177E-19   0.32693015609841386      0.005660540550933914     0.003846996716207247
5.785235029746871E-19     -0.3439804118018151      0.005777753669271225     8.261645948488457E-4
1.0079692072326174E-18    -0.34398500321794295     0.005777740552594885     8.257280699588773E-4
-4.3368086899420177E-19   0.3113856971866009       0.0055770762226366784    0.005151576704937031
2.1684043449710089E-19    0.30486656767973175      0.005554012225224799     0.0047753329495721164
-2.1684043449710089E-19   -0.3105461963629629      0.005595820454928368     0.0071210359773491855
1.0842021724855044E-19    0.2938635806161095       0.005538401706376152     0.005824074062733004
0                         -0.29749284978239        0.005559001889707035     0.008451967866243018
8.673617379884035E-19     -0.28199544024875167     0.005532770154059403     0.013618125557021328
8.673617379884035E-19     0.22935440528980702      0.005506843495495021     0.02498110567824846
0                         0.21369043693425518      0.005503846054683303     0.04282410868590348
-2.1684043449710089E-19   -0.21490234767290828     0.00550354426496412      0.028888558959588244
4.3368086899420177E-19    0.18814693238960736      0.005501192077758547     0.04604550492048666
0                         -0.17086476110848003     0.0055001360109560166    0.042691815677930504
0                         -0.13788147082854912     0.005499836871823045     0.16340184671747515
-1.3010426069826053E-18   -0.20395561105253493     0.005501874586849543     0.03949576051075949
-7.047314121155779E-19    0.1530595246204635       0.005500040217714452     0.03158594913189094
1.0028870095490916E-18    0.15299276749191362      0.005500037862063645     0.031510087413559734
1.734723475976807E-18     0.10524010735612235      0.005499876860332879     0.770955884672031
-1.734723475976807E-18    0.12324261610835499      0.005499646654193498     0.381646969824167
0                         0.011229731639589294     0.005499974112721621     0.9424662149997041
0                         -0.04656360004642023     0.005499914358792865     1.7042841457719027
-6.505213034913027E-19    -0.04504002235758685     0.005499915510650452     1.694960818961262
4.2351647362715017E-22    0.34415020385921147      0.00999793064469522      0.0011960667673759316
4.2351647362715017E-22    0.34401043089480077      0.005753347837540218     7.537063485173913E-4
1.5547863218946145E-17    0.34734057116452394      0.002678552836753335     5.003194483106174E-4
-2.0881221367492187E-22   0.3473406188176096       0.010000000000000002     0.001587099618648032
4.2351647362715017E-22    0.3441501697452377       0.010000000000000004     0.001196726535790878
6.731063731333992E-20     0.3473406240500797       0.009999999996591397     0.0015871002600695164
2.143131898507868E-17     0.35                     0.010000000000000002     0
2.143131898507868E-17     0.35                     0                        0
-4.3368086899420177E-19   0.339840965331764        0                        0
-4.3368086899420177E-19   0.339840965331764        0.001015936541375412     2.0845242256111793E-4
-4.3368086899420177E-19   0.339840965331764        0.002612749830862304     6.524417542194026E-4
-5.868829524601931E-17    -0.34732968236195305     0.0026895199409022424    6.682399847606303E-4
0                         -0.34732085387321376     0.010000000000000002     0.0013768388912529339
-3.2311742677852644E-27   -0.3473208363143849      0.010000000000000002     0.0013768418024460653
-6.429395695523604E-17    -0.35                    0                        0
-6.429395695523604E-17    -0.35                    0.010000000000000002     0
-2.1684043449710089E-19   0.32848968029020315      4.2448864331793803E-4    8.70976507346722E-5
-2.1684043449710089E-19   0.32848968029020315      0                        0
-2.1684043449710089E-19   0.32848968029020315      0.002572984789086514     0.0022300212845065438
0                         0.32654245720260916      0                        0
0                         0.32654245720260916      2.2974626300971984E-4    1.0072706159700484E-4
0                         0.32654245720260916      0.002565647042748574     0.002430569261643342
1.5585406229479126E-19    -0.3441067993700234      0.009997734441956787     0.0019101668847810982
9.147955830346444E-19     -0.34398617992215424     0.005776661829237948     8.255620479164189E-4
1.2197274440461925E-19    -0.34410675863217033     0.010000000000000002     0.0019107501970097162
-4.3368086899420177E-19   -0.336285581896145       0.0018012124079017256    4.888732430685056E-4
-4.3368086899420177E-19   -0.336285581896145       0                        0
-4.3368086899420177E-19   -0.336285581896145       0.002616872132620285     8.150708000790349E-4
-2.1684043449710089E-19   0.32492751755791915      0                        0
-2.1684043449710089E-19   0.32492751755791915      2.8916041145725754E-4    4.524709686346259E-4
-2.1684043449710089E-19   0.32492751755791915      0.002562038855125532     0.0027194542923980602
-4.3368086899420177E-19   0.31178653567977554      0                        0
-4.3368086899420177E-19   0.31178653567977554      8.277843434066145E-4     0.0012952962052937625
-4.3368086899420177E-19   0.31178653567977554      0.0025350365487029503    0.004937868172440063
4.3368086899420177E-19    0.3050587204855709       0                        0
4.3368086899420177E-19    0.3050587204855709       0.0017471183043716253    0.0026888850770377354
4.3368086899420177E-19    0.3050587204855709       0.002524547701364366     0.004347598721768201
4.3368086899420177E-19    0.3018186883780234       0                        0
4.3368086899420177E-19    0.3018186883780234       0.001930582850000925     0.002971244364141399
4.3368086899420177E-19    0.3018186883780234       0.002521366879631834     0.00401935019231197
4.3368086899420177E-19    -0.3321887779944248      0                        0
4.3368086899420177E-19    -0.3321887779944248      0.0019029635495573054    5.164898697300071E-4
4.3368086899420177E-19    -0.3321887779944248      0.0026012815621806206    0.0014092225108340885
0                         -0.32294254297871117     0.00178664648828131      0.0021872904679973203
0                         -0.32294254297871117     0                        0
0                         -0.32294254297871117     0.0025685304620968914    0.00318685418017935
0                         -0.31330986079154943     5.991739063939323E-4     7.335347998186735E-4
0                         -0.31330986079154943     0                        0
0                         -0.31330986079154943     0.0025477176275389003    0.005229434854478451
0                         -0.31094975557594057     2.188292360784975E-4     2.2518744191107345E-4
0                         -0.31094975557594057     0                        0
0                         -0.31094975557594057     0.0025435536749347414    0.005589054117471864
0                         0.29392573708898906      9.072688463099359E-4     0.0013963231085152208
0                         0.29392573708898906      0                        0
0                         0.29392573708898906      0.002517455793157662     0.003848303383361492
-2.1684043449710089E-19   0.2898936074646305       0                        0
-2.1684043449710089E-19   0.2898936074646305       2.0148533250988955E-4    5.9749009297628334E-5
-2.1684043449710089E-19   0.2898936074646305       0.002515823589682477     0.003584005473442181
2.1684043449710089E-19    -0.3087355068225417      0                        0
2.1684043449710089E-19    -0.3087355068225417      3.3417518694399016E-4    8.308637703455986E-4
2.1684043449710089E-19    -0.3087355068225417      0.0025410279943468474    0.005922763710675667
4.3368086899420177E-19    -0.29761319952668513     0                        0
4.3368086899420177E-19    -0.29761319952668513     0.0010797042936558318    0.0026844817189720705
4.3368086899420177E-19    -0.29761319952668513     0.0025268187937049526    0.006461229734256753
0                         0.28809735639711087      0                        0
0                         0.28809735639711087      2.554647662069347E-4     0.0013741752907113962
0                         0.28809735639711087      0.0025149401823642815    0.004814887043321209
8.673617379884035E-19     0.2747792780579701       0                        0
8.673617379884035E-19     0.2747792780579701       0.0011860036860811389    0.00637965455786245
8.673617379884035E-19     0.2747792780579701       0.0025119969964673885    0.01281099722528798
0                         -0.2882156261066249      8.821635104027984E-4     0.002193333703251361
0                         -0.2882156261066249      0                        0
0                         -0.2882156261066249      0.0025199452680706013    0.007792616649951187
4.3368086899420177E-19    -0.28201659523222833     6.481644937915863E-4     0.0022777319517717685
4.3368086899420177E-19    -0.28201659523222833     0                        0
4.3368086899420177E-19    -0.28201659523222833     0.0025148955718149804    0.008659751682004386
8.673617379884035E-19     0.26054667767446776      0                        0
8.673617379884035E-19     0.26054667767446776      0.0017166104192865923    0.0062912820285144265
8.673617379884035E-19     0.26054667767446776      0.0025077976418110184    0.010128704210275685
-4.3368086899420177E-19   0.2546059765692196       0                        0
-4.3368086899420177E-19   0.2546059765692196       0.0020587927403329684    0.007545361266696546
-4.3368086899420177E-19   0.2546059765692196       0.0025067073587125644    0.009228435845436062
4.3368086899420177E-19    -0.2667183557578364      6.371768639140942E-4     0.0022391200316713546
4.3368086899420177E-19    -0.2667183557578364      0                        0
4.3368086899420177E-19    -0.2667183557578364      0.0025089412282220938    0.011717762153005861
8.673617379884035E-19     -0.26110616807691556     5.306770067509572E-4     0.0014663137085682728
8.673617379884035E-19     -0.26110616807691556     0                        0
8.673617379884035E-19     -0.26110616807691556     0.0025072361793226634    0.01147563827190598
0                         -0.23993169139261664     4.88898303646708E-4      0.0013508749684143892
0                         -0.23993169139261664     0                        0
0                         -0.23993169139261664     0.002503714974207572     0.003942218668695091
0                         -0.23512021878734463     3.8580605224783273E-4    0.0016555935503022184
0                         -0.23512021878734463     0                        0
0                         -0.23512021878734463     0.0025030360725348793    0.004378655531712544
8.673617379884035E-19     0.22935440528980702      0                        0
8.673617379884035E-19     0.22935440528980702      0.0012149792727561674    0.007209133485372316
4.3368086899420177E-19    0.24810818049481506      0                        0
4.3368086899420177E-19    0.24810818049481506      0.0017839260396930725    0.006537990045746195
4.3368086899420177E-19    0.24810818049481506      0.0025059336246830268    0.012163723504449907
8.673617379884035E-19     0.22935440528980702      0.002503110679770464     0.01724598643027351
0                         0.21369043693425518      2.3283722064417744E-4    0.0013815499915312782
0                         0.21369043693425518      0                        0
0                         0.21369043693425518      0.0025017482066742288    0.028753071419411955
2.1684043449710089E-19    0.2120442050265271       0                        0
2.1684043449710089E-19    0.2120442050265271       1.7624581915065137E-4    0.0021164087674190725
2.1684043449710089E-19    0.2120442050265271       0.002501590182237904     0.03016872701759889
-2.1684043449710089E-19   -0.21490234767290828     0                        0
-2.1684043449710089E-19   -0.21490234767290828     0.0017081164036283141    0.014216828101742374
-2.1684043449710089E-19   -0.21490234767290828     0.0025016110295291456    0.015237376189356878
-2.1684043449710089E-19   -0.20601833680687862     0                        0
-2.1684043449710089E-19   -0.20601833680687862     0.002332960294947072     0.019417467926073444
-2.1684043449710089E-19   -0.20601833680687862     0.002500958780344381     0.02006143356108428
1.0842021724855044E-19    0.20442743802527033      0                        0
1.0842021724855044E-19    0.20442743802527033      7.579688352596205E-4     0.011186072361788105
1.0842021724855044E-19    0.20442743802527033      0.0025012660651226497    0.03221673322779747
4.3368086899420177E-19    0.18814693238960736      0                        0
4.3368086899420177E-19    0.18814693238960736      0.0022662446471694       0.03344514369653313
4.3368086899420177E-19    0.18814693238960736      0.0025005418535266125    0.035405213587795345
-4.3368086899420177E-19   0.184833738640038        0.0021977487130795145    0.032434283566703005
-4.3368086899420177E-19   0.184833738640038        0                        0
-4.3368086899420177E-19   0.184833738640038        0.0025004411249572524    0.03890911574159472
0                         -0.14740240449136452     0                        0
0                         -0.14740240449136452     9.39081111998859E-4      0.0020241379916828635
0                         -0.13788147082854912     0                        0
0                         -0.13788147082854912     9.91020205941235E-4      0.053165765235140446